unknown system                          
           1
     9.611580   -5.549250    0.000000
     0.000000   11.098500    0.000000
     0.000000    0.000000   18.865000
   C    Cl   H    O    Pt
    16    16    54    16    64
Direct configuration=    50
   0.30608513  0.44413860  0.47480219
   0.23570237  0.29321774  0.47197321
   0.45615487  0.51318021  0.47332307
   0.46043084  0.28437042  0.46484890
   0.25574526  0.49817427  0.53406925
   0.30613965  0.21362239  0.46482582
   0.53010081  0.43643892  0.47018434
   0.64947508  0.27776460  0.53382607
   0.86317996  0.99581530  0.83089085
   0.34994163  0.95480584  0.77258114
   0.76456091  0.02424492  0.61811563
   0.48073465  0.57863840  0.68965908
   0.38108723  0.24492962  0.65524169
   0.88541583  0.75269009  0.76163372
   0.24753292  0.85002718  0.59590386
   0.06741663  0.50614752  0.67443282
   0.12964968  0.86669451  0.65117983
   0.47460731  0.71856956  0.73233340
   0.69784915  0.96837500  0.85827690
   0.40634924  0.01786714  0.86030145
   0.60728902  0.63520056  0.62142878
   0.54667198  0.31714046  0.69270986
   0.02436128  0.81458833  0.82494549
   0.83143132  0.58347558  0.72951799
   0.48700578 -0.00058578  0.71119592
   0.92972159  0.06126425  0.64883179
   0.17785968  0.80590806  0.50824766
   0.91218294  0.40087207  0.63032784
   0.12706099  0.40093861  0.71579509
   0.25209903  0.20081079  0.72119535
   0.75631775  0.98572211  0.52619390
   1.00753999  0.16476654  0.84090102
   0.13268010  0.23902443  0.49520027
   0.50975495  0.61492692  0.49909788
   0.24222260  0.43803351  0.58308863
   0.33011819  0.60789454  0.54562430
   0.24824268  0.10542051  0.48378771
   0.62671491  0.47992994  0.49876209
   0.70894870  0.30553354  0.48457865
   0.66121053  0.19927205  0.56237382
   0.68680226  0.37115729  0.56778552
   0.13236438  0.52866395  0.47351155
   0.37135338  0.93173129  0.46646845
   0.49856302  0.08013391  0.49002651
   0.03634159  0.95957793  0.46893486
   0.00419391  0.34068136  0.49994822
   0.95817433  0.64072409  0.52015428
   0.86497439  0.55336834  0.45947744
   0.79702569  0.66563130  0.49685562
   0.85327227  0.82361549  0.50034441
   0.54874944  0.76178763  0.55033338
   0.49623979  0.85801659  0.51702539
   0.11154993  0.60598291  0.82710937
   0.23851189  0.69436785  0.87668027
   0.33440384  0.95480215  0.59473003
   0.34284097  0.14735027  0.62668742
   0.38847722  0.32946578  0.62013320
   0.29319453  1.00811935  0.75646563
   0.68839101  0.93523754  0.64637750
   0.38386107  0.51120828  0.65998771
   0.50060069  0.51829695  0.72834684
   0.92047457  0.83642942  0.72308857
   0.78892650  0.73366048  0.78949645
   0.28410465  0.78021756  0.61759221
   0.05191726  0.56828521  0.71561576
   0.15108574  0.57292826  0.63802475
   0.28796656  0.84149365  0.77017844
   0.75570180  0.12067826  0.62881089
   0.87853344  0.92779668  0.86629130
   0.86107513  0.96982221  0.77188137
   0.01229716  0.03663720  0.53263238
   0.89865852  0.17688147  0.50106808
   0.90282071  0.27160608  0.76721596
   0.76278216  0.24864985  0.73060480
   0.66244902  0.41154142  0.86493384
   0.26298054  0.51100621  0.83733166
   0.29801919  0.39340202  0.82065014
   0.64397529  0.71040891  0.88904772
   0.51394563  0.58170630  0.85539643
   0.68352731  0.56218010  0.87623720
   0.38594568  0.31028073  0.88145847
   0.68778748  0.15370821  0.86229319
   0.81431928  0.31213461  0.86433562
   0.44017386  0.23434522  0.84278653
   0.99007182  0.48503897  0.89641732
   0.89567623  0.51554774  0.84951513
   0.50649669  0.22373230  0.51563382
   0.12215080  0.48387883  0.51996409
   0.47362206  0.98460232  0.47266720
   0.93040507  0.25892894  0.47245143
   0.86107045  0.56368017  0.51081981
   0.76872816  0.73782156  0.48561034
   0.01899833  0.95423908  0.52214618
   0.48426487  0.79490412  0.55407853
   0.21338657  0.66284257  0.82712077
   0.80102309  0.20595637  0.75974984
   0.33331638  0.48433047  0.84355869
   0.61839646  0.64785953  0.85144448
   0.72847101  0.50139139  0.88460340
   0.46663255  0.32837027  0.85026731
   0.72132446  0.24691389  0.88582113
   0.94912768  0.46684572  0.84436758
   0.00000000  0.00000000  0.00000000
   0.99918127  1.00035407  0.36012511
   0.16283825  0.08765169  0.23519114
   0.08333000  0.16667000  0.12010000
   0.25000000  0.00000000  0.00000000
   0.23927670  0.98646993  0.35549693
   0.42014134  0.09271239  0.23706229
   0.33333000  0.16667000  0.12010000
   0.50000000  0.00000000  0.00000000
   0.50267526  0.00272622  0.35678250
   0.66948306  0.07496559  0.23830838
   0.58333000  0.16667000  0.12010000
   0.75000000  0.00000000  0.00000000
   0.75167003  0.99540366  0.36604408
   0.90820686  0.07717288  0.23292197
   0.83333000  0.16667000  0.12010000
   0.00000000  0.25000000  0.00000000
   0.99753623  0.24486806  0.36339482
   0.15344586  0.32069088  0.24523578
   0.08333000  0.41667000  0.12010000
   0.25000000  0.25000000  0.00000000
   0.23754586  0.23996623  0.36340354
   0.41600413  0.34364963  0.23956690
   0.33333000  0.41667000  0.12010000
   0.50000000  0.25000000  0.00000000
   0.51140109  0.25646083  0.35896818
   0.65953185  0.33126249  0.23781959
   0.58333000  0.41667000  0.12010000
   0.75000000  0.25000000  0.00000000
   0.74893618  0.25016878  0.35660129
   0.91564239  0.33991537  0.23606865
   0.83333000  0.41667000  0.12010000
   0.00000000  0.50000000  0.00000000
   0.01180651  0.50086046  0.35605264
   0.17655803  0.57794581  0.24218738
   0.08333000  0.66667000  0.12010000
   0.25000000  0.50000000  0.00000000
   0.25240334  0.50613446  0.37349047
   0.41218655  0.57544314  0.24476495
   0.33333000  0.66667000  0.12010000
   0.50000000  0.50000000  0.00000000
   0.51892177  0.51376354  0.36436878
   0.66128638  0.58475603  0.23815928
   0.58333000  0.66667000  0.12010000
   0.75000000  0.50000000  0.00000000
   0.77010783  0.50301360  0.35657592
   0.91710118  0.57897913  0.23486901
   0.83333000  0.66667000  0.12010000
   0.00000000  0.75000000  0.00000000
   0.00161712  0.74895499  0.35780326
   0.16900689  0.83316054  0.23585275
   0.08333000  0.91667000  0.12010000
   0.25000000  0.75000000  0.00000000
   0.25986639  0.75103274  0.35816522
   0.41998778  0.83153112  0.23878785
   0.33333000  0.91667000  0.12010000
   0.50000000  0.75000000  0.00000000
   0.50507977  0.76322360  0.35378808
   0.66954732  0.83212557  0.24079248
   0.58333000  0.91667000  0.12010000
   0.75000000  0.75000000  0.00000000
   0.75947833  0.75580783  0.36582448
   0.91323904  0.83164357  0.23648731
   0.83333000  0.91667000  0.12010000
Direct configuration=   100
   0.29609379  0.43795926  0.47346160
   0.23482590  0.28455495  0.47109737
   0.44807935  0.50653459  0.47229351
   0.46200136  0.28794913  0.46193112
   0.22849058  0.47067756  0.53558211
   0.31237868  0.21185656  0.46171936
   0.52620289  0.43588645  0.46694605
   0.64802623  0.26420023  0.52454049
   0.88189854  0.99991579  0.83040968
   0.34907919  0.95887081  0.77576082
   0.76415179  0.01380606  0.61470711
   0.47342349  0.57879766  0.69338894
   0.39227399  0.25960471  0.65880798
   0.88232328  0.75548949  0.76846434
   0.25804031  0.86479991  0.59207885
   0.05538724  0.50243399  0.67138418
   0.14827620  0.87946918  0.65659177
   0.48118666  0.73406877  0.72687670
   0.71266151  0.96869535  0.85582305
   0.41068766  0.00470726  0.86250698
   0.60810466  0.62916765  0.62917367
   0.55695492  0.32203120  0.69555396
   0.02887453  0.81593324  0.82514015
   0.84030734  0.59087823  0.73153781
   0.49365826  0.00881589  0.71693499
   0.92621937  0.05673991  0.65739422
   0.17076673  0.78972634  0.51118811
   0.89803026  0.40134066  0.62650419
   0.12047029  0.39577573  0.71095767
   0.25335789  0.21031859  0.72113812
   0.75169135  0.98676072  0.51889715
   1.01580375  0.17067811  0.84591215
   0.12699869  0.21961937  0.48970263
   0.51075127  0.61744237  0.48510721
   0.18596153  0.38606260  0.57508957
   0.30872656  0.56420719  0.56446924
   0.26126067  0.10454879  0.48013701
   0.63269196  0.49512080  0.48795975
   0.68064200  0.21809692  0.48014503
   0.65113523  0.22679907  0.57923802
   0.71354691  0.37795540  0.52414570
   0.14196226  0.55285323  0.47574219
   0.37248248  0.92623235  0.46492171
   0.46541817  0.06875977  0.48836009
   0.01234751  0.99587702  0.47389011
   0.00194016  0.35624997  0.49732173
   0.94914301  0.59558821  0.55555573
   0.93053196  0.57512101  0.47303053
   0.80272649  0.66338903  0.49303653
   0.85679865  0.81767245  0.50734455
   0.49420350  0.73400690  0.57110664
   0.51121196  0.85979715  0.52500218
   0.13384438  0.59069524  0.82739843
   0.25074835  0.67460327  0.87880510
   0.34632730  0.97196025  0.58386149
   0.38295958  0.17065437  0.62969850
   0.37581185  0.32811684  0.62714223
   0.29277369  1.00914007  0.75678418
   0.67940329  0.91760999  0.64025371
   0.37262197  0.50770967  0.66955790
   0.49973180  0.51885506  0.73171783
   0.90975201  0.81990878  0.72013029
   0.79521713  0.74857206  0.79616964
   0.30035646  0.80737726  0.61703394
   0.04635526  0.55703477  0.71573339
   0.12997882  0.57319652  0.63349757
   0.29296699  0.84632331  0.77011473
   0.75566712  0.10238024  0.62463002
   0.90858475  0.93180270  0.86245341
   0.87533473  0.98011106  0.77569461
   0.01817792  0.00130156  0.55844477
   0.88577857  0.18952255  0.50255123
   0.89944840  0.26549245  0.75088383
   0.78757222  0.26584509  0.71062490
   0.65791301  0.40759755  0.87056211
   0.29126790  0.53210739  0.83963006
   0.28820800  0.39088404  0.81817825
   0.60562942  0.70305365  0.87822077
   0.50078090  0.57968497  0.84037728
   0.68387512  0.55226672  0.87194551
   0.40633957  0.32736973  0.87814372
   0.71196418  0.16797069  0.86695633
   0.79624751  0.32350941  0.86258457
   0.43505677  0.19853282  0.85628166
   0.98878377  0.45566542  0.88737776
   0.90373705  0.51893008  0.84506617
   0.49863759  0.22391608  0.51665174
   0.11528751  0.49741539  0.52157152
   0.47064394  0.98408304  0.47778838
   0.93593090  0.27008682  0.47257731
   0.88459586  0.57655922  0.51688691
   0.77169812  0.73399604  0.48898927
   0.02425446  0.95070994  0.51714285
   0.43832549  0.76886704  0.54751429
   0.23624293  0.63899821  0.83021821
   0.80007631  0.21323026  0.75101941
   0.34268507  0.48130152  0.83894186
   0.60656099  0.63547226  0.84581427
   0.74009598  0.50249002  0.87651504
   0.46597295  0.30497903  0.84938729
   0.70473284  0.24550138  0.88396716
   0.94494361  0.45921426  0.83888863
   0.00000000  0.00000000  0.00000000
   0.99501773  0.99975420  0.36021054
   0.16081140  0.08505514  0.23559421
   0.08333000  0.16667000  0.12010000
   0.25000000  0.00000000  0.00000000
   0.23481627  0.98840330  0.35278714
   0.41504978  0.09200100  0.23708521
   0.33333000  0.16667000  0.12010000
   0.50000000  0.00000000  0.00000000
   0.50134145  0.00968259  0.35294984
   0.66713098  0.07601451  0.23949367
   0.58333000  0.16667000  0.12010000
   0.75000000  0.00000000  0.00000000
   0.75405667  0.99645084  0.36888798
   0.90540894  0.07504532  0.23543472
   0.83333000  0.16667000  0.12010000
   0.00000000  0.25000000  0.00000000
   0.99237985  0.24115187  0.36327439
   0.14271673  0.31758144  0.24482718
   0.08333000  0.41667000  0.12010000
   0.25000000  0.25000000  0.00000000
   0.24220423  0.24408460  0.35983472
   0.40933649  0.34063109  0.23979393
   0.33333000  0.41667000  0.12010000
   0.50000000  0.25000000  0.00000000
   0.51182742  0.26327549  0.35684227
   0.66266301  0.33531020  0.23639208
   0.58333000  0.41667000  0.12010000
   0.75000000  0.25000000  0.00000000
   0.74975045  0.24532323  0.35467428
   0.91001476  0.33424294  0.23682123
   0.83333000  0.41667000  0.12010000
   0.00000000  0.50000000  0.00000000
   0.01324509  0.50057686  0.35497533
   0.17725135  0.57747935  0.24141441
   0.08333000  0.66667000  0.12010000
   0.25000000  0.50000000  0.00000000
   0.25338049  0.50864706  0.37703631
   0.40820079  0.57536562  0.24571042
   0.33333000  0.66667000  0.12010000
   0.50000000  0.50000000  0.00000000
   0.52124867  0.51664542  0.36419137
   0.66169671  0.58597160  0.23966673
   0.58333000  0.66667000  0.12010000
   0.75000000  0.50000000  0.00000000
   0.77424287  0.50427694  0.35528047
   0.91790839  0.58411480  0.23507698
   0.83333000  0.66667000  0.12010000
   0.00000000  0.75000000  0.00000000
  -0.00106376  0.74804564  0.35573197
   0.16949243  0.83372564  0.23591235
   0.08333000  0.91667000  0.12010000
   0.25000000  0.75000000  0.00000000
   0.25690379  0.75539573  0.35817583
   0.41694244  0.83313017  0.23379541
   0.33333000  0.91667000  0.12010000
   0.50000000  0.75000000  0.00000000
   0.50730069  0.76287422  0.35416200
   0.66763158  0.82822983  0.24058520
   0.58333000  0.91667000  0.12010000
   0.75000000  0.75000000  0.00000000
   0.76146782  0.75626788  0.36678554
   0.91283310  0.82869378  0.23827218
   0.83333000  0.91667000  0.12010000
Direct configuration=   150
   0.27920061  0.42091630  0.47820703
   0.22396935  0.26951992  0.46853537
   0.43255251  0.50350001  0.47763612
   0.46433730  0.29426557  0.46863140
   0.21581323  0.44726766  0.54272501
   0.31588722  0.21673367  0.46595878
   0.52687389  0.44879611  0.47297003
   0.64353091  0.25816046  0.51390552
   0.90919366  1.01859570  0.84234626
   0.36178264  0.95136258  0.77568949
   0.74470695 -0.01398779  0.62019448
   0.50614298  0.60163916  0.70132373
   0.39370343  0.25011073  0.65805799
   0.90040627  0.76669877  0.76833052
   0.27153049  0.88969089  0.59542938
   0.04601251  0.51311832  0.67004412
   0.13983740  0.88242716  0.65548808
   0.48658975  0.75625601  0.71146591
   0.72753684  0.96675242  0.85994473
   0.40841505 -0.03556295  0.86812763
   0.62048285  0.62757727  0.62953274
   0.55554513  0.33571813  0.69583128
   0.03877125  0.81257408  0.83319352
   0.85372497  0.60915735  0.71817731
   0.51092711  0.02825096  0.71597787
   0.91521362  0.04369915  0.64663115
   0.18334120  0.79265192  0.51969141
   0.88922178  0.41065259  0.62858124
   0.11250602  0.39833935  0.69719975
   0.26210744  0.22005441  0.72045093
   0.74867165  0.99150755  0.52717142
   1.03421621  0.19660173  0.85371978
   0.11782016  0.19284405  0.48495384
   0.47233130  0.60468840  0.50229078
   0.12902940  0.34907229  0.56457091
   0.28879546  0.50184102  0.58462131
   0.26009139  0.10515449  0.47585751
   0.63980425  0.52456633  0.48084067
   0.66800446  0.21916455  0.46545349
   0.63937387  0.19796425  0.56018230
   0.71738220  0.36412773  0.52294011
   0.18436938  0.56326013  0.47681877
   0.37569985  0.90904436  0.45744187
   0.47333774  0.06899923  0.48492100
   0.04073541  0.95172845  0.48057181
   0.00646218  0.38155303  0.49769516
   0.95892398  0.63646837  0.52378270
   0.88075663  0.51220011  0.47245296
   0.81122199  0.67365401  0.48876000
   0.86550862  0.83028392  0.50051988
   0.51817752  0.81213104  0.56883521
   0.43951259  0.75345691  0.50097496
   0.15113248  0.57943984  0.84710492
   0.28719844  0.66217726  0.89260092
   0.36088545  0.99753077  0.58587564
   0.36785803  0.14151866  0.63955487
   0.39706235  0.32170338  0.61325181
   0.31295246  1.01138096  0.76189388
   0.67177702  0.87230555  0.63914673
   0.40772872  0.50985327  0.69619476
   0.56523238  0.59257889  0.74639565
   0.91878885  0.83603318  0.71991586
   0.81203682  0.75877304  0.80195136
   0.31686380  0.83581153  0.62172148
   0.03844911  0.56815563  0.71743958
   0.12097667  0.59346496  0.63149222
   0.29790855  0.83733316  0.76577447
   0.71314588  0.05740563  0.63762764
   0.94540863  0.96267481  0.87916801
   0.90643436  0.98877677  0.78715938
  -0.00367013  0.02883637  0.53346283
   0.88533944  0.20901601  0.51062414
   0.87934195  0.23554593  0.74553682
   0.73647105  0.24708329  0.74589854
   0.65503986  0.40112689  0.88440137
   0.30005429  0.50609517  0.84227425
   0.32288596  0.37802385  0.80890909
   0.60711869  0.67395878  0.89807634
   0.51976910  0.57993899  0.83410539
   0.69219226  0.56890922  0.86799143
   0.44163040  0.29335838  0.89800843
   0.65182748  0.14179994  0.88308867
   0.79331359  0.24666099  0.84327146
   0.46719938  0.20309358  0.84156821
   0.96857029  0.44230100  0.88786505
   0.93234906  0.52072088  0.83498333
   0.50915066  0.22491728  0.51650210
   0.14858546  0.52461763  0.52461521
   0.46965838  0.98936841  0.46117855
   0.94662733  0.29124101  0.47858393
   0.86782924  0.57541671  0.50506344
   0.77987695  0.74440248  0.48527350
   0.03155431  0.96446097  0.53104988
   0.42326740  0.74296556  0.55342038
   0.25389419  0.62772112  0.84537887
   0.77518718  0.18498522  0.74195653
   0.33919720  0.44054890  0.84822678
   0.61676355  0.64072652  0.84957354
   0.72620925  0.49932498  0.88870991
   0.46407691  0.28603820  0.84815532
   0.71173546  0.24214469  0.86651975
   0.98767558  0.47402837  0.84010388
   0.00000000  0.00000000  0.00000000
   0.98945940  0.99458114  0.35897246
   0.15853397  0.07794631  0.23842659
   0.08333000  0.16667000  0.12010000
   0.25000000  0.00000000  0.00000000
   0.23560160  0.99825965  0.34973371
   0.40825159  0.08694040  0.23884564
   0.33333000  0.16667000  0.12010000
   0.50000000  0.00000000  0.00000000
   0.49720366  0.01424481  0.35113322
   0.65735155  0.08209399  0.23928515
   0.58333000  0.16667000  0.12010000
   0.75000000  0.00000000  0.00000000
   0.75334732  0.99992857  0.36972468
   0.90812706  0.07631295  0.24711498
   0.83333000  0.16667000  0.12010000
   0.00000000  0.25000000  0.00000000
   0.98352202  0.24346612  0.36288289
   0.14521244  0.32747290  0.24186290
   0.08333000  0.41667000  0.12010000
   0.25000000  0.25000000  0.00000000
   0.24910846  0.24772691  0.35523058
   0.39912842  0.32617028  0.24067740
   0.33333000  0.41667000  0.12010000
   0.50000000  0.25000000  0.00000000
   0.50580138  0.26946930  0.35833036
   0.67103023  0.34361346  0.23494589
   0.58333000  0.41667000  0.12010000
   0.75000000  0.25000000  0.00000000
   0.75118288  0.24053376  0.35302459
   0.90459955  0.32119359  0.23778870
   0.83333000  0.41667000  0.12010000
   0.00000000  0.50000000  0.00000000
   0.01001598  0.50410534  0.35569389
   0.16858112  0.57887768  0.23783873
   0.08333000  0.66667000  0.12010000
   0.25000000  0.50000000  0.00000000
   0.26143076  0.50761584  0.37998989
   0.40932162  0.57976367  0.24379102
   0.33333000  0.66667000  0.12010000
   0.50000000  0.50000000  0.00000000
   0.51866315  0.51753995  0.36464562
   0.66297297  0.58135145  0.24394167
   0.58333000  0.66667000  0.12010000
   0.75000000  0.50000000  0.00000000
   0.76684170  0.49997907  0.35326164
   0.92336856  0.59174511  0.23548845
   0.83333000  0.66667000  0.12010000
   0.00000000  0.75000000  0.00000000
   0.00262723  0.74650528  0.35529754
   0.16875137  0.83178790  0.23565357
   0.08333000  0.91667000  0.12010000
   0.25000000  0.75000000  0.00000000
   0.24700883  0.75940580  0.35717444
   0.41237959  0.83639868  0.23007821
   0.33333000  0.91667000  0.12010000
   0.50000000  0.75000000  0.00000000
   0.50752274  0.75772551  0.36016940
   0.66330136  0.82581788  0.24019900
   0.58333000  0.91667000  0.12010000
   0.75000000  0.75000000  0.00000000
   0.76182209  0.75603827  0.36832451
   0.91579003  0.82689920  0.24133566
   0.83333000  0.91667000  0.12010000
Direct configuration=   200
   0.30314426  0.43684032  0.47852682
   0.22865632  0.28007724  0.46238486
   0.45821424  0.50098095  0.48040790
   0.45768427  0.27730801  0.47027654
   0.23901372  0.45626926  0.54651693
   0.30808443  0.20536058  0.46281614
   0.53030938  0.42776633  0.46991488
   0.66638837  0.29117861  0.53122071
   0.94649164  1.05738236  0.83606011
   0.34883214  0.91204935  0.77184869
   0.75730308 -0.02345002  0.61568339
   0.54549252  0.62702013  0.69824824
   0.39485414  0.25215769  0.65956933
   0.91764584  0.78919126  0.77810953
   0.26208451  0.88434444  0.60455641
   0.05283004  0.52221439  0.67228876
   0.12708624  0.89342816  0.65842096
   0.48332714  0.75330441  0.70089704
   0.76679936  0.98004901  0.86747241
   0.41474004 -0.08489392  0.85579002
   0.62885078  0.64324335  0.61658275
   0.56185090  0.35989402  0.69166812
   0.04350845  0.78555509  0.84005767
   0.87362164  0.65007525  0.71692181
   0.49674029  0.04100400  0.71940625
   0.93233964  0.04300275  0.65046380
   0.19775261  0.82328012  0.51795923
   0.89053883  0.43741824  0.63375857
   0.12224178  0.40410303  0.69413607
   0.24948164  0.21570948  0.71742757
   0.72205649  1.00033067  0.52671383
   1.03937697  0.23468661  0.85658938
   0.12118824  0.23274040  0.47871029
   0.51381162  0.60474196  0.50113811
   0.16558083  0.36247405  0.57322215
   0.32237132  0.53190468  0.58147888
   0.25246201  0.09297641  0.47587437
   0.63066742  0.47804276  0.49639794
   0.71434242  0.33770972  0.48104472
   0.67334267  0.20247569  0.55109713
   0.68959154  0.37500403  0.57158845
   0.16100413  0.52805964  0.47411541
   0.38991471  0.90329462  0.47315378
   0.47054270  0.07327285  0.48034693
   0.02158502  0.90577373  0.47111712
  -0.01192206  0.36986275  0.52573943
   0.95392015  0.59814799  0.51712853
   0.88530390  0.62016176  0.44885382
   0.80740962  0.70382932  0.50537389
   0.82804390  0.85358636  0.50413567
   0.46603516  0.75376554  0.49289626
   0.34246324  0.68140643  0.54285784
   0.20086298  0.56135872  0.84436110
   0.32633194  0.67550861  0.88254984
   0.34464078  0.98731369  0.59560592
   0.37021817  0.14967408  0.64715368
   0.40535401  0.31534848  0.61472455
   0.27589782  0.94826892  0.78295647
   0.71140894  0.86687437  0.61684894
   0.44910387  0.51930836  0.69950550
   0.59781898  0.64811333  0.74943695
   0.96252381  0.89302730  0.76435637
   0.81578533  0.74583916  0.80111425
   0.31928414  0.82985870  0.62389562
   0.04020490  0.57558396  0.71792238
   0.12924278  0.60094707  0.63704405
   0.30324392  0.80612830  0.74999172
   0.70385333  0.01567078  0.65223838
   0.98431027  1.00055293  0.86496350
   0.94698479  1.04946428  0.77247540
   0.03106776  0.04420477  0.49190873
   0.88002459  0.20422038  0.51820132
   0.92397426  0.25624981  0.72993398
   0.77015661  0.21561920  0.71662041
   0.71251869  0.39369533  0.85548832
   0.32418182  0.47315001  0.87519065
   0.34510629  0.45229733  0.80404148
   0.65480989  0.75948564  0.85624564
   0.52909069  0.60412744  0.88491848
   0.69900763  0.53602755  0.87184574
   0.48120129  0.32413072  0.85481015
   0.61997011  0.17879340  0.84997910
   0.77540645  0.24173500  0.82521323
   0.40126603  0.20450166  0.88710183
   0.97497056  0.41501359  0.87310901
   0.95074446  0.52446556  0.86375029
   0.50869046  0.20985535  0.51536006
   0.16375652  0.52627402  0.52862227
   0.48183633  0.98895006  0.47471280
   0.93599849  0.29089220  0.49798204
   0.85908979  0.57513171  0.49962124
   0.76926777  0.75978473  0.48471843
   0.02511804  0.96060958  0.51316220
   0.44016127  0.74459053  0.54242110
   0.30021325  0.62387539  0.83951501
   0.82703891  0.18512588  0.73723012
   0.34522693  0.40995183  0.85075255
   0.61666906  0.65130376  0.86225605
   0.75395837  0.49378521  0.87031086
   0.46265228  0.23171172  0.84849197
   0.71377805  0.23788044  0.86481234
   0.99116220  0.47736605  0.83630527
   0.00000000  0.00000000  0.00000000
   0.99235766  0.99132042  0.36243235
   0.14965710  0.07434371  0.23581486
   0.08333000  0.16667000  0.12010000
   0.25000000  0.00000000  0.00000000
   0.23925387  1.00510043  0.35327026
   0.40955941  0.08709814  0.23747469
   0.33333000  0.16667000  0.12010000
   0.50000000  0.00000000  0.00000000
   0.48889362  0.00713930  0.35356476
   0.64735245  0.08363870  0.23468461
   0.58333000  0.16667000  0.12010000
   0.75000000  0.00000000  0.00000000
   0.74041598  0.99734126  0.36851478
   0.90767461  0.07687286  0.25316492
   0.83333000  0.16667000  0.12010000
   0.00000000  0.25000000  0.00000000
   0.98703888  0.25530037  0.36441047
   0.16503494  0.34385579  0.23896484
   0.08333000  0.41667000  0.12010000
   0.25000000  0.25000000  0.00000000
   0.24330002  0.24973830  0.35650645
   0.39848511  0.32067675  0.23650147
   0.33333000  0.41667000  0.12010000
   0.50000000  0.25000000  0.00000000
   0.50227934  0.27126385  0.36161274
   0.67208887  0.34442332  0.23593550
   0.58333000  0.41667000  0.12010000
   0.75000000  0.25000000  0.00000000
   0.74382340  0.24285295  0.35606962
   0.90771613  0.31776179  0.23629509
   0.83333000  0.41667000  0.12010000
   0.00000000  0.50000000  0.00000000
   0.00704881  0.50776057  0.35764284
   0.15739574  0.58216011  0.23579297
   0.08333000  0.66667000  0.12010000
   0.25000000  0.50000000  0.00000000
   0.26685578  0.50422835  0.37876085
   0.41321094  0.58365405  0.24102934
   0.33333000  0.66667000  0.12010000
   0.50000000  0.50000000  0.00000000
   0.51083427  0.51812781  0.36982107
   0.65971211  0.57560865  0.24570659
   0.58333000  0.66667000  0.12010000
   0.75000000  0.50000000  0.00000000
   0.75155981  0.49107766  0.35242351
   0.92516783  0.58665833  0.23474805
   0.83333000  0.66667000  0.12010000
   0.00000000  0.75000000  0.00000000
   0.00808775  0.74627495  0.36080154
   0.16568439  0.83023957  0.23378602
   0.08333000  0.91667000  0.12010000
   0.25000000  0.75000000  0.00000000
   0.24358292  0.75778681  0.35590920
   0.41309815  0.83533943  0.23797386
   0.33333000  0.91667000  0.12010000
   0.50000000  0.75000000  0.00000000
   0.50208561  0.75546997  0.36652804
   0.66030116  0.82958340  0.24169144
   0.58333000  0.91667000  0.12010000
   0.75000000  0.75000000  0.00000000
   0.75602163  0.75457019  0.36931791
   0.91378611  0.82979177  0.24106877
   0.83333000  0.91667000  0.12010000
Direct configuration=   250
   0.30176626  0.43244366  0.48074547
   0.23698443  0.27989185  0.47412361
   0.45338614  0.50512641  0.47742386
   0.46713301  0.28323426  0.46996131
   0.25287778  0.47397956  0.54582104
   0.31028744  0.20602708  0.46741401
   0.53509668  0.43943249  0.47247332
   0.64489159  0.28199972  0.54830794
   0.96775214  1.08966403  0.83847921
   0.35650365  0.91349210  0.77645877
   0.76687710 -0.02048696  0.62427001
   0.54304023  0.62481642  0.69277280
   0.39028470  0.27289081  0.65424792
   0.92399301  0.78881247  0.79953845
   0.25500054  0.87111731  0.59903387
   0.07617649  0.54449917  0.68620122
   0.14203993  0.91689278  0.65094747
   0.47959586  0.74476750  0.69840502
   0.79228828  0.99290963  0.86421793
   0.43529675 -0.11195418  0.85086768
   0.62874385  0.64626990  0.60989221
   0.54916104  0.36061295  0.69607458
   0.05818542  0.77449741  0.85515462
   0.86157042  0.67457254  0.72473742
   0.48233744  0.05077799  0.71594047
   0.94818152  0.04845244  0.63530559
   0.18651336  0.83510676  0.51208994
   0.91540132  0.46087732  0.64378733
   0.13626086  0.42352534  0.69826041
   0.25544808  0.22285687  0.71654642
   0.73329028  1.01632654  0.54029021
   1.05088414  0.27085465  0.85896691
   0.13347777  0.23071840  0.49686696
   0.49025356  0.59600540  0.51000449
   0.16990228  0.38297599  0.57361210
   0.33714969  0.53971882  0.58289184
   0.25110295  0.09850875  0.48521081
   0.63769180  0.49100366  0.49185976
   0.71611127  0.29216720  0.50475400
   0.64934029  0.23033857  0.59728462
   0.67538136  0.39181164  0.56002192
   0.16131505  0.54790098  0.48301621
   0.45612387  0.89482358  0.48816519
   0.47182795  0.05717239  0.49511014
   0.04216713  0.91472971  0.48154063
  -0.00032112  0.38753097  0.51638295
   0.90491784  0.60337659  0.56379123
   0.90094620  0.55962754  0.48491948
   0.78718715  0.68267903  0.48485873
   0.84681450  0.83748087  0.50071507
   0.48404538  0.73425592  0.48448553
   0.33836399  0.71050960  0.51432239
   0.18988472  0.55613459  0.84229614
   0.34605679  0.63104841  0.86313993
   0.36138416  0.95728189  0.59277383
   0.40653904  0.19345466  0.63022853
   0.36148156  0.33182423  0.61552954
   0.28015796  0.93834006  0.79870181
   0.71989207  0.87424514  0.62901127
   0.44189014  0.52862454  0.70113620
   0.61176380  0.64367536  0.73600082
   0.99490914  0.89987822  0.77515718
   0.83954218  0.78446707  0.83329981
   0.26990641  0.78708612  0.62010025
   0.06796086  0.58326667  0.73730104
   0.13483401  0.62886828  0.65175864
   0.30954831  0.81228524  0.75187573
   0.73043951  0.02808580  0.66655079
   1.02565242  1.03636925  0.86387444
   0.96528489  1.08519645  0.78429890
  -0.02470385  0.00800932  0.47066218
   0.91275618  0.21687020  0.53264416
   0.90340502  0.28921616  0.77404093
   0.81930363  0.26209463  0.70762363
   0.72239757  0.40464663  0.84929388
   0.41069431  0.35758220  0.87610686
   0.31429240  0.40782531  0.86547608
   0.62484873  0.64697421  0.89660187
   0.52955575  0.57209441  0.83628155
   0.71232920  0.54392209  0.85175976
   0.39555020  0.20487884  0.81855210
   0.60809280  0.19549895  0.85948455
   0.73823979  0.21055923  0.81507557
   0.36106368  0.11400183  0.88995983
   0.98492550  0.42630957  0.87514566
   0.96413502  0.54480914  0.83935623
   0.50678124  0.21829187  0.52402382
   0.18637598  0.55797607  0.53374898
   0.50473294  1.00195189  0.46740150
   0.94407477  0.29135643  0.49593549
   0.88131147  0.61613390  0.51774957
   0.75283741  0.74786458  0.48639593
  -0.00073645  0.96014148  0.50959610
   0.44394084  0.77266151  0.52201589
   0.27804895  0.56861780  0.82617698
   0.83247789  0.20509309  0.74757698
   0.38871685  0.40513474  0.83914250
   0.62089641  0.65632916  0.84102319
   0.78244127  0.50676476  0.85902597
   0.43102646  0.16523693  0.85544466
   0.70749194  0.24027599  0.85716174
   1.00963574  0.49143501  0.83318010
   0.00000000  0.00000000  0.00000000
   0.99674545  0.99195836  0.36541878
   0.14668368  0.08029604  0.23372592
   0.08333000  0.16667000  0.12010000
   0.25000000  0.00000000  0.00000000
   0.24371121  1.00371764  0.35814467
   0.41177872  0.08829804  0.23667223
   0.33333000  0.16667000  0.12010000
   0.50000000  0.00000000  0.00000000
   0.48357832 -0.00280011  0.36077757
   0.65360587  0.08265937  0.23447975
   0.58333000  0.16667000  0.12010000
   0.75000000  0.00000000  0.00000000